                         Program Version 5.0.3 -  RELEASE  -
|  1> !BLYP D3BJ def2-SVP NEB-TS NumFreq xyzfile
|  2>
|  3> %Freq
|  4> Temp 298.15
|  5> end
|  6>
|  7> %pal
|  8> nprocs 6
|  9> end
| 10>
| 11> %NEB
| 12> NEB_END_XYZFILE "d2.xyz"
| 13> end
| 14>
| 15> *xyzfile 0 1 d1.xyz
| 16>
| 17>                          ****END OF INPUT****
 Total Charge           Charge          ....    0
 Multiplicity           Mult            ....    1
 Number of Electrons    NEL             ....   50
Dispersion correction           -0.019617889
FINAL SINGLE POINT ENERGY      -344.410549979050
Dispersion correction            ... done
Dispersion correction           -0.019715351
FINAL SINGLE POINT ENERGY      -344.411283531094
Dispersion correction            ... done
Dispersion correction           -0.019813445
FINAL SINGLE POINT ENERGY      -344.411637763691
Dispersion correction            ... done
FINAL SINGLE POINT ENERGY      -344.411691317246
FINAL SINGLE POINT ENERGY      -344.411717339400
Dispersion correction            ... done
Dispersion correction           -0.019842473
FINAL SINGLE POINT ENERGY      -344.411725160641
Dispersion correction            ... done

CARTESIAN COORDINATES (ANGSTROEM)
---------------------------------
  C     -1.910270   -0.258274    0.011475
  C     -0.629211    0.417979   -0.381287
  H     -1.866730   -0.623938    1.049725
  H     -2.079261   -1.107996   -0.678195
  H     -2.741376    0.465775   -0.097585
  O      0.635425   -0.629331    0.455546
  C      1.829362   -0.759063   -0.306767
  H      1.822101   -0.063150   -1.177837
  H      1.926519   -1.797726   -0.688986
  H      2.719404   -0.530673    0.318960
  O     -0.264409    0.910108   -1.409829
  O     -0.222242    1.400804    1.107484
  H      0.283695    2.144767    0.716706
  H      0.496990    0.430720    1.080592

Dispersion correction           -0.019843975
FINAL SINGLE POINT ENERGY      -344.411726630522
Dispersion correction            ... done
                    ***********************HURRAY********************
 Multiplicity           Mult            ....    1
 Number of Electrons    NEL             ....   50
 Basis Dimension        Dim             ....  124

ORBITAL ENERGIES
----------------

  NO   OCC          E(Eh)            E(eV)
   0   2.0000     -18.789932      -511.3001
   1   2.0000     -18.789306      -511.2830
   2   2.0000     -18.780842      -511.0527
   3   2.0000     -10.058196      -273.6974
   4   2.0000      -9.965220      -271.1674
   5   2.0000      -9.944487      -270.6033
   6   2.0000      -0.964895       -26.2561
   7   2.0000      -0.902506       -24.5584
   8   2.0000      -0.861907       -23.4537
   9   2.0000      -0.671875       -18.2827
  10   2.0000      -0.591287       -16.0897
  11   2.0000      -0.492854       -13.4112
  12   2.0000      -0.452711       -12.3189
  13   2.0000      -0.423341       -11.5197
  14   2.0000      -0.402328       -10.9479
  15   2.0000      -0.396988       -10.8026
  16   2.0000      -0.375712       -10.2236
  17   2.0000      -0.372348       -10.1321
  18   2.0000      -0.356074        -9.6893
  19   2.0000      -0.339216        -9.2305
  20   2.0000      -0.310039        -8.4366
  21   2.0000      -0.301665        -8.2087
  22   2.0000      -0.242515        -6.5992
  23   2.0000      -0.233779        -6.3614
  24   2.0000      -0.219542        -5.9740
  25   0.0000      -0.000685        -0.0186
  26   0.0000       0.004878         0.1327
  27   0.0000       0.028027         0.7626
  28   0.0000       0.063989         1.7412
  29   0.0000       0.067162         1.8276

-------
TIMINGS
-------

Dispersion correction           -0.019844232
FINAL SINGLE POINT ENERGY      -344.411727197310
                    ***********************HURRAY************************

DIPOLE MOMENT
-------------
                                X             Y             Z
Electronic contribution:     -0.90239       2.49563      -0.80236
Nuclear contribution   :      0.98634      -2.51752       0.91533
                        -----------------------------------------
Total Dipole Moment    :      0.08394      -0.02189       0.11297
                        -----------------------------------------
Magnitude (a.u.)       :      0.14244
Magnitude (Debye)      :      0.36204

VIBRATIONAL FREQUENCIES
-----------------------

Scaling factor for frequencies =  1.000000000 (already applied!)

   0:         0.00 cm**-1
   1:         0.00 cm**-1
   2:         0.00 cm**-1
   3:         0.00 cm**-1
   4:         0.00 cm**-1
   5:         0.00 cm**-1
   6:      -974.74 cm**-1 ***imaginary mode***
   7:       107.24 cm**-1
   8:       129.82 cm**-1
   9:       175.95 cm**-1
  10:       223.76 cm**-1
  11:       274.12 cm**-1
  12:       325.10 cm**-1
  13:       377.25 cm**-1
  14:       433.76 cm**-1
  15:       518.91 cm**-1
  16:       583.83 cm**-1
  17:       628.60 cm**-1
  18:       726.29 cm**-1
  19:       833.51 cm**-1
  20:       960.66 cm**-1
  21:      1014.86 cm**-1
  22:      1054.72 cm**-1
  23:      1076.31 cm**-1
  24:      1134.33 cm**-1
  25:      1150.23 cm**-1
  26:      1340.64 cm**-1
  27:      1397.50 cm**-1
  28:      1402.40 cm**-1
  29:      1406.41 cm**-1
  30:      1434.62 cm**-1
  31:      1437.86 cm**-1
  32:      1486.76 cm**-1
  33:      1744.28 cm**-1
  34:      1874.49 cm**-1
  35:      2904.10 cm**-1
  36:      2976.08 cm**-1
  37:      2980.27 cm**-1
  38:      2996.61 cm**-1
  39:      3060.41 cm**-1
  40:      3107.58 cm**-1
  41:      3630.80 cm**-1

IR SPECTRUM
-----------

 Mode   freq       eps      Int      T**2         TX        TY        TZ
       cm**-1   L/(mol*cm) km/mol    a.u.
----------------------------------------------------------------------------
  7:    107.24   0.000107    0.54  0.000312  ( 0.011367 -0.012903 -0.004078)
  8:    129.82   0.000060    0.31  0.000145  ( 0.003465  0.008880  0.007368)
  9:    175.95   0.000228    1.15  0.000405  (-0.010134  0.017166  0.002737)
 10:    223.76   0.000225    1.14  0.000314  ( 0.003493 -0.015358  0.008139)
 11:    274.12   0.000135    0.68  0.000154  (-0.004219 -0.010128 -0.005810)
 12:    325.10   0.004273   21.60  0.004102  (-0.045779  0.006119 -0.044371)
 13:    377.25   0.004373   22.10  0.003617  ( 0.012485 -0.036015 -0.046519)
 14:    433.76   0.024323  122.92  0.017499  (-0.092679  0.093327 -0.014134)
 15:    518.91   0.026130  132.05  0.015714  (-0.089128 -0.024917 -0.084554)
 16:    583.83   0.004021   20.32  0.002149  (-0.035979  0.001069 -0.029219)
 17:    628.60   0.003399   17.17  0.001687  ( 0.001162 -0.020975  0.035297)
 18:    726.29   0.139823  706.61  0.060077  (-0.092349  0.204493  0.098650)
 19:    833.51   0.017587   88.88  0.006585  ( 0.066339 -0.036046  0.029738)
 20:    960.66   0.012094   61.12  0.003929  (-0.056987  0.008839 -0.024555)
 21:   1014.86   0.044451  224.64  0.013668  (-0.102579  0.055099  0.010494)
 22:   1054.72   0.050456  254.98  0.014929  (-0.014854  0.099759  0.068965)
 23:   1076.31   0.013401   67.73  0.003886  (-0.033112  0.052196 -0.008048)
 24:   1134.33   0.000745    3.77  0.000205  ( 0.014131 -0.002311  0.000264)
 25:   1150.23   0.009013   45.55  0.002445  ( 0.027847 -0.038973 -0.012286)
 26:   1340.64   0.002071   10.47  0.000482  ( 0.019701  0.009192  0.003081)
 27:   1397.50   0.000522    2.64  0.000117  ( 0.004535  0.008341 -0.005136)
 28:   1402.40   0.001449    7.32  0.000322  (-0.006785  0.003784  0.016189)
 29:   1406.41   0.001159    5.86  0.000257  (-0.006912 -0.004580  0.013729)
 30:   1434.62   0.000721    3.65  0.000157  ( 0.003905  0.011383  0.003475)
 31:   1437.86   0.001314    6.64  0.000285  (-0.002635 -0.000925  0.016657)
 32:   1486.76   0.007270   36.74  0.001526  ( 0.017605  0.014184 -0.031857)
 33:   1744.28   0.019653   99.32  0.003516  ( 0.026518 -0.012411  0.051563)
 34:   1874.49   0.039439  199.31  0.006566  (-0.010427 -0.027810  0.075390)
 35:   2904.10   0.011600   58.62  0.001246  ( 0.032635 -0.008297 -0.010611)
 36:   2976.08   0.005611   28.36  0.000588  (-0.014895  0.014973 -0.011930)
 37:   2980.27   0.000762    3.85  0.000080  ( 0.008255  0.001029  0.003252)
 38:   2996.61   0.008267   41.78  0.000861  ( 0.009241  0.023133  0.015502)
 39:   3060.41   0.001344    6.79  0.000137  ( 0.004854 -0.010069 -0.003476)
 40:   3107.58   0.000332    1.68  0.000033  ( 0.000115 -0.001779  0.005492)
 41:   3630.80   0.007576   38.29  0.000651  ( 0.007627  0.024325  0.001132)

--------------------------
THERMOCHEMISTRY AT 298.15K
--------------------------

Temperature         ... 298.15 K
Pressure            ... 1.00 atm
Total Mass          ... 92.09 AMU

Throughout the following assumptions are being made:
  (1) The electronic state is orbitally nondegenerate
  (2) There are no thermally accessible electronically excited states
  (3) Hindered rotations indicated by low frequency modes are not
      treated as such but are treated as vibrations and this may
      cause some error
  (4) All equations used are the standard statistical mechanics
      equations for an ideal gas
  (5) All vibrations are strictly harmonic

freq.     107.24  E(vib)   ...       0.45
freq.     129.82  E(vib)   ...       0.43
freq.     175.95  E(vib)   ...       0.38
freq.     223.76  E(vib)   ...       0.33
freq.     274.12  E(vib)   ...       0.28
freq.     325.10  E(vib)   ...       0.24
freq.     377.25  E(vib)   ...       0.21
freq.     433.76  E(vib)   ...       0.17
freq.     518.91  E(vib)   ...       0.13
freq.     583.83  E(vib)   ...       0.11
freq.     628.60  E(vib)   ...       0.09
freq.     726.29  E(vib)   ...       0.06
freq.     833.51  E(vib)   ...       0.04
freq.     960.66  E(vib)   ...       0.03
freq.    1014.86  E(vib)   ...       0.02
freq.    1054.72  E(vib)   ...       0.02
freq.    1076.31  E(vib)   ...       0.02
freq.    1134.33  E(vib)   ...       0.01
freq.    1150.23  E(vib)   ...       0.01
freq.    1340.64  E(vib)   ...       0.01
freq.    1397.50  E(vib)   ...       0.00
freq.    1402.40  E(vib)   ...       0.00
freq.    1406.41  E(vib)   ...       0.00
freq.    1434.62  E(vib)   ...       0.00
freq.    1437.86  E(vib)   ...       0.00
freq.    1486.76  E(vib)   ...       0.00
freq.    1744.28  E(vib)   ...       0.00
freq.    1874.49  E(vib)   ...       0.00
freq.    2904.10  E(vib)   ...       0.00
freq.    2976.08  E(vib)   ...       0.00
freq.    2980.27  E(vib)   ...       0.00
freq.    2996.61  E(vib)   ...       0.00
freq.    3060.41  E(vib)   ...       0.00
freq.    3107.58  E(vib)   ...       0.00
freq.    3630.80  E(vib)   ...       0.00

------------
INNER ENERGY
------------

The inner energy is: U= E(el) + E(ZPE) + E(vib) + E(rot) + E(trans)
    E(el)   - is the total energy from the electronic structure calculation
              = E(kin-el) + E(nuc-el) + E(el-el) + E(nuc-nuc)
    E(ZPE)  - the the zero temperature vibrational energy from the frequency calculation
    E(vib)  - the the finite temperature correction to E(ZPE) due to population
              of excited vibrational states
    E(rot)  - is the rotational thermal energy
    E(trans)- is the translational thermal energy

Summary of contributions to the inner energy U:
Electronic energy                ...   -344.41172720 Eh
Zero point energy                ...      0.10686894 Eh      67.06 kcal/mol
Thermal vibrational correction   ...      0.00490304 Eh       3.08 kcal/mol
Thermal rotational correction    ...      0.00141627 Eh       0.89 kcal/mol
Thermal translational correction ...      0.00141627 Eh       0.89 kcal/mol
-----------------------------------------------------------------------
Total thermal energy                   -344.29712267 Eh

Summary of corrections to the electronic energy:
(perhaps to be used in another calculation)
Total thermal correction                  0.00773559 Eh       4.85 kcal/mol
Non-thermal (ZPE) correction              0.10686894 Eh      67.06 kcal/mol
-----------------------------------------------------------------------
Total correction                          0.11460453 Eh      71.92 kcal/mol

--------
ENTHALPY
--------

The enthalpy is H = U + kB*T
                kB is Boltzmann's constant
Total free energy                 ...   -344.29712267 Eh
Thermal Enthalpy correction       ...      0.00094421 Eh       0.59 kcal/mol
-----------------------------------------------------------------------
Total Enthalpy                    ...   -344.29617846 Eh

Note: Only C1 symmetry has been detected, increase convergence thresholds
      if your molecule has a higher symmetry. Symmetry factor of 1.0 is
      used for the rotational entropy correction.

Note: Rotational entropy computed according to Herzberg
Infrared and Raman Spectra, Chapter V,1, Van Nostrand Reinhold, 1945
Point Group:  C1, Symmetry Number:   1
Rotational constants in cm-1:     0.143670     0.087628     0.082547

Vibrational entropy computed according to the QRRHO of S. Grimme
Chem.Eur.J. 2012 18 9955

-------
ENTROPY
-------

The entropy contributions are T*S = T*(S(el)+S(vib)+S(rot)+S(trans))
     S(el)   - electronic entropy
     S(vib)  - vibrational entropy
     S(rot)  - rotational entropy
     S(trans)- translational entropy
The entropies will be listed as multiplied by the temperature to get
units of energy

Electronic entropy                ...      0.00000000 Eh      0.00 kcal/mol
Vibrational entropy               ...      0.00833079 Eh      5.23 kcal/mol
Rotational entropy                ...      0.01275373 Eh      8.00 kcal/mol
Translational entropy             ...      0.01875460 Eh     11.77 kcal/mol
-----------------------------------------------------------------------
Final entropy term                ...      0.03983912 Eh     25.00 kcal/mol

In case the symmetry of your molecule has not been determined correctly
or in case you have a reason to use a different symmetry number we print
out the resulting rotational entropy values for sn=1,12 :
 --------------------------------------------------------
|  sn= 1 | S(rot)=       0.01275373 Eh      8.00 kcal/mol|
|  sn= 2 | S(rot)=       0.01209928 Eh      7.59 kcal/mol|
|  sn= 3 | S(rot)=       0.01171644 Eh      7.35 kcal/mol|
|  sn= 4 | S(rot)=       0.01144482 Eh      7.18 kcal/mol|
|  sn= 5 | S(rot)=       0.01123413 Eh      7.05 kcal/mol|
|  sn= 6 | S(rot)=       0.01106199 Eh      6.94 kcal/mol|
|  sn= 7 | S(rot)=       0.01091644 Eh      6.85 kcal/mol|
|  sn= 8 | S(rot)=       0.01079036 Eh      6.77 kcal/mol|
|  sn= 9 | S(rot)=       0.01067915 Eh      6.70 kcal/mol|
|  sn=10 | S(rot)=       0.01057967 Eh      6.64 kcal/mol|
|  sn=11 | S(rot)=       0.01048968 Eh      6.58 kcal/mol|
|  sn=12 | S(rot)=       0.01040753 Eh      6.53 kcal/mol|
 --------------------------------------------------------

-------------------
GIBBS FREE ENERGY
-------------------

The Gibbs free energy is G = H - T*S

Total enthalpy                    ...   -344.29617846 Eh
Total entropy correction          ...     -0.03983912 Eh    -25.00 kcal/mol
-----------------------------------------------------------------------
Final Gibbs free energy         ...   -344.33601758 Eh

For completeness - the Gibbs free energy minus the electronic energy
G-E(el)                           ...      0.07570962 Eh     47.51 kcal/mol

                             ****ORCA TERMINATED NORMALLY****
TOTAL RUN TIME: 0 days 1 hours 42 minutes 20 seconds 585 msec
