                         Program Version 5.0.3 -  RELEASE  -
|  1> !BLYP def2-SVP OptTS Freq xyzfile
|  2>
|  3> %pal
|  4> nprocs 6
|  5> end
|  6>
|  7> %Freq
|  8> Temp 298.15
|  9> end
| 10>
| 11> *xyzfile 0 1 ts_hydr.xyz
| 12>
| 13>                          ****END OF INPUT****
 Total Charge           Charge          ....    0
 Multiplicity           Mult            ....    1
 Number of Electrons    NEL             ....   50
FINAL SINGLE POINT ENERGY      -344.391882963390
FINAL SINGLE POINT ENERGY      -344.391823869853
FINAL SINGLE POINT ENERGY      -344.391645124368
FINAL SINGLE POINT ENERGY      -344.391324307468
FINAL SINGLE POINT ENERGY      -344.391001606776
FINAL SINGLE POINT ENERGY      -344.391045409362
FINAL SINGLE POINT ENERGY      -344.391272639682
FINAL SINGLE POINT ENERGY      -344.391568742943
FINAL SINGLE POINT ENERGY      -344.391428136248
FINAL SINGLE POINT ENERGY      -344.391583901985
FINAL SINGLE POINT ENERGY      -344.392171921423
FINAL SINGLE POINT ENERGY      -344.391438571006
FINAL SINGLE POINT ENERGY      -344.391492224564
FINAL SINGLE POINT ENERGY      -344.391738655587
FINAL SINGLE POINT ENERGY      -344.391869193584
FINAL SINGLE POINT ENERGY      -344.391898323943
FINAL SINGLE POINT ENERGY      -344.391908347534
FINAL SINGLE POINT ENERGY      -344.391916703755
FINAL SINGLE POINT ENERGY      -344.391918658719
                    ***********************HURRAY********************

CARTESIAN COORDINATES (ANGSTROEM)
---------------------------------
  C     -1.913188   -0.259485    0.010740
  C     -0.630816    0.419561   -0.382170
  H     -1.862808   -0.648591    1.040415
  H     -2.096467   -1.092949   -0.695671
  H     -2.741977    0.470831   -0.073638
  O      0.643643   -0.616225    0.452571
  C      1.837987   -0.766207   -0.308269
  H      1.833074   -0.090234   -1.195129
  H      1.932793   -1.813993   -0.666358
  H      2.729464   -0.526651    0.311614
  O     -0.270809    0.915846   -1.410543
  O     -0.228261    1.404762    1.113336
  H      0.262198    2.161004    0.725856
  H      0.505166    0.442330    1.077246

 Multiplicity           Mult            ....    1
 Number of Electrons    NEL             ....   50
 Basis Dimension        Dim             ....  124

ORBITAL ENERGIES
----------------

  NO   OCC          E(Eh)            E(eV)
   0   2.0000     -18.790008      -511.3021
   1   2.0000     -18.788151      -511.2516
   2   2.0000     -18.780943      -511.0554
   3   2.0000     -10.058397      -273.7029
   4   2.0000      -9.965856      -271.1847
   5   2.0000      -9.944732      -270.6099
   6   2.0000      -0.964283       -26.2395
   7   2.0000      -0.901485       -24.5307
   8   2.0000      -0.860809       -23.4238
   9   2.0000      -0.671147       -18.2628
  10   2.0000      -0.591884       -16.1060
  11   2.0000      -0.492423       -13.3995
  12   2.0000      -0.452497       -12.3131
  13   2.0000      -0.422538       -11.4978
  14   2.0000      -0.401762       -10.9325
  15   2.0000      -0.396550       -10.7907
  16   2.0000      -0.375515       -10.2183
  17   2.0000      -0.371916       -10.1204
  18   2.0000      -0.355985        -9.6868
  19   2.0000      -0.338690        -9.2162
  20   2.0000      -0.310623        -8.4525
  21   2.0000      -0.300573        -8.1790
  22   2.0000      -0.242109        -6.5881
  23   2.0000      -0.233535        -6.3548
  24   2.0000      -0.219274        -5.9667
  25   0.0000      -0.001620        -0.0441
  26   0.0000       0.004379         0.1192
  27   0.0000       0.028356         0.7716
  28   0.0000       0.064100         1.7442
  29   0.0000       0.066542         1.8107

MULLIKEN ATOMIC CHARGES
-----------------------
   0 C :    0.156091
   1 C :    0.020323
   2 H :    0.012681
   3 H :    0.027311
   4 H :    0.028059
   5 O :   -0.387138
   6 C :    0.180070
   7 H :    0.005473
   8 H :    0.003740
   9 H :    0.001100
  10 O :   -0.134632
  11 O :   -0.289953
  12 H :    0.159652
  13 H :    0.217222
Sum of atomic charges:    0.0000000

LOEWDIN ATOMIC CHARGES
----------------------
   0 C :   -0.054676
   1 C :    0.150220
   2 H :    0.041811
   3 H :    0.045261
   4 H :    0.045470
   5 O :   -0.173151
   6 C :    0.052045
   7 H :    0.004641
   8 H :    0.011448
   9 H :    0.010047
  10 O :   -0.122382
  11 O :   -0.117557
  12 H :    0.071197
  13 H :    0.035626

  Mayer bond orders larger than 0.100000
B(  0-C ,  1-C ) :   1.0586 B(  0-C ,  2-H ) :   0.9308 B(  0-C ,  3-H ) :   0.9447
B(  0-C ,  4-H ) :   0.9417 B(  1-C ,  5-O ) :   0.5025 B(  1-C , 10-O ) :   2.1190
B(  1-C , 11-O ) :   0.5444 B(  5-O ,  6-C ) :   1.0070 B(  5-O , 13-H ) :   0.4770
B(  6-C ,  7-H ) :   0.9431 B(  6-C ,  8-H ) :   0.9738 B(  6-C ,  9-H ) :   0.9705
B( 11-O , 12-H ) :   0.9704 B( 11-O , 13-H ) :   0.5520

FINAL SINGLE POINT ENERGY      -344.391920031240

DIPOLE MOMENT
-------------
                                X             Y             Z
Electronic contribution:     -0.90259       2.52253      -0.81033
Nuclear contribution   :      0.98804      -2.55301       0.91638
                        -----------------------------------------
Total Dipole Moment    :      0.08545      -0.03047       0.10605
                        -----------------------------------------
Magnitude (a.u.)       :      0.13956
Magnitude (Debye)      :      0.35473

VIBRATIONAL FREQUENCIES
-----------------------

Scaling factor for frequencies =  1.000000000  (already applied!)

   0:         0.00 cm**-1
   1:         0.00 cm**-1
   2:         0.00 cm**-1
   3:         0.00 cm**-1
   4:         0.00 cm**-1
   5:         0.00 cm**-1
   6:      -974.31 cm**-1 ***imaginary mode***
   7:       113.00 cm**-1
   8:       134.19 cm**-1
   9:       173.82 cm**-1
  10:       219.90 cm**-1
  11:       270.45 cm**-1
  12:       319.43 cm**-1
  13:       371.85 cm**-1
  14:       428.70 cm**-1
  15:       511.96 cm**-1
  16:       581.01 cm**-1
  17:       626.18 cm**-1
  18:       724.28 cm**-1
  19:       831.29 cm**-1
  20:       954.93 cm**-1
  21:      1011.59 cm**-1
  22:      1052.90 cm**-1
  23:      1072.55 cm**-1
  24:      1133.67 cm**-1
  25:      1150.64 cm**-1
  26:      1340.09 cm**-1
  27:      1396.75 cm**-1
  28:      1402.52 cm**-1
  29:      1407.38 cm**-1
  30:      1436.16 cm**-1
  31:      1438.20 cm**-1
  32:      1477.89 cm**-1
  33:      1744.11 cm**-1
  34:      1871.70 cm**-1
  35:      2904.47 cm**-1
  36:      2975.50 cm**-1
  37:      2978.51 cm**-1
  38:      2993.87 cm**-1
  39:      3056.86 cm**-1
  40:      3105.96 cm**-1
  41:      3627.98 cm**-1

IR SPECTRUM
-----------

 Mode   freq       eps      Int      T**2         TX        TY        TZ
       cm**-1   L/(mol*cm) km/mol    a.u.
----------------------------------------------------------------------------
  7:    113.00   0.000152    0.77  0.000421  ( 0.012038 -0.016607  0.000512)
  8:    134.19   0.000055    0.28  0.000129  ( 0.003013  0.010156  0.004076)
  9:    173.82   0.000230    1.16  0.000414  ( 0.012212 -0.016006 -0.002896)
 10:    219.90   0.000167    0.84  0.000237  (-0.001828  0.014404 -0.005144)
 11:    270.45   0.000126    0.64  0.000146  ( 0.001786 -0.011860 -0.001434)
 12:    319.43   0.005312   26.85  0.005190  (-0.050908  0.006305 -0.050579)
 13:    371.85   0.004308   21.77  0.003615  (-0.004464  0.033410  0.049792)
 14:    428.70   0.025789  130.33  0.018772  ( 0.099125 -0.093152  0.016412)
 15:    511.96   0.024880  125.73  0.015165  (-0.084894 -0.029608 -0.084153)
 16:    581.01   0.003881   19.61  0.002085  ( 0.037124 -0.003706  0.026320)
 17:    626.18   0.003314   16.75  0.001652  (-0.001110 -0.017924  0.036458)
 18:    724.28   0.139310  704.01  0.060023  ( 0.092705 -0.203768 -0.099535)
 19:    831.29   0.019177   96.91  0.007199  ( 0.068442 -0.040787  0.029175)
 20:    954.93   0.012434   62.83  0.004063  (-0.058250  0.007753 -0.024699)
 21:   1011.59   0.042958  217.09  0.013252  ( 0.102169 -0.052287 -0.008921)
 22:   1052.90   0.049979  252.58  0.014813  (-0.018370  0.099225  0.068045)
 23:   1072.55   0.015465   78.16  0.004500  ( 0.036038 -0.056390  0.004596)
 24:   1133.67   0.001035    5.23  0.000285  ( 0.015952 -0.004887 -0.002541)
 25:   1150.64   0.009703   49.04  0.002632  ( 0.028414 -0.040106 -0.014689)
 26:   1340.09   0.001957    9.89  0.000456  (-0.018945 -0.009525 -0.002469)
 27:   1396.75   0.000745    3.76  0.000166  (-0.005889 -0.006855  0.009203)
 28:   1402.52   0.000696    3.52  0.000155  ( 0.003823 -0.004312 -0.011033)
 29:   1407.38   0.001202    6.07  0.000267  ( 0.007104  0.003511 -0.014274)
 30:   1436.16   0.000709    3.58  0.000154  ( 0.003478  0.011449  0.003283)
 31:   1438.20   0.001583    8.00  0.000344  ( 0.002918 -0.001276 -0.018260)
 32:   1477.89   0.007136   36.06  0.001507  ( 0.018069  0.014196 -0.031286)
 33:   1744.11   0.019540   98.75  0.003496  ( 0.025821 -0.010183  0.052209)
 34:   1871.70   0.039647  200.36  0.006610  (-0.009577 -0.028365  0.075591)
 35:   2904.47   0.012063   60.96  0.001296  ( 0.032946 -0.009215 -0.011209)
 36:   2975.50   0.005368   27.13  0.000563  (-0.014125  0.014582 -0.012282)
 37:   2978.51   0.000742    3.75  0.000078  ( 0.008112  0.001165  0.003257)
 38:   2993.87   0.007730   39.06  0.000806  ( 0.008781  0.022749  0.014528)
 39:   3056.86   0.001000    5.05  0.000102  ( 0.004070 -0.008646 -0.003276)
 40:   3105.96   0.000356    1.80  0.000036  ( 0.000005 -0.001817  0.005701)
 41:   3627.98   0.007505   37.93  0.000646  ( 0.006969  0.024407  0.001112)

--------------------------
THERMOCHEMISTRY AT 298.15K
--------------------------

Temperature         ... 298.15 K
Pressure            ... 1.00 atm
Total Mass          ... 92.09 AMU

Throughout the following assumptions are being made:
  (1) The electronic state is orbitally nondegenerate
  (2) There are no thermally accessible electronically excited states
  (3) Hindered rotations indicated by low frequency modes are not
      treated as such but are treated as vibrations and this may
      cause some error
  (4) All equations used are the standard statistical mechanics
      equations for an ideal gas
  (5) All vibrations are strictly harmonic

freq.     113.00  E(vib)   ...       0.45
freq.     134.19  E(vib)   ...       0.42
freq.     173.82  E(vib)   ...       0.38
freq.     219.90  E(vib)   ...       0.33
freq.     270.45  E(vib)   ...       0.29
freq.     319.43  E(vib)   ...       0.25
freq.     371.85  E(vib)   ...       0.21
freq.     428.70  E(vib)   ...       0.18
freq.     511.96  E(vib)   ...       0.14
freq.     581.01  E(vib)   ...       0.11
freq.     626.18  E(vib)   ...       0.09
freq.     724.28  E(vib)   ...       0.06
freq.     831.29  E(vib)   ...       0.04
freq.     954.93  E(vib)   ...       0.03
freq.    1011.59  E(vib)   ...       0.02
freq.    1052.90  E(vib)   ...       0.02
freq.    1072.55  E(vib)   ...       0.02
freq.    1133.67  E(vib)   ...       0.01
freq.    1150.64  E(vib)   ...       0.01
freq.    1340.09  E(vib)   ...       0.01
freq.    1396.75  E(vib)   ...       0.00
freq.    1402.52  E(vib)   ...       0.00
freq.    1407.38  E(vib)   ...       0.00
freq.    1436.16  E(vib)   ...       0.00
freq.    1438.20  E(vib)   ...       0.00
freq.    1477.89  E(vib)   ...       0.00
freq.    1744.11  E(vib)   ...       0.00
freq.    1871.70  E(vib)   ...       0.00
freq.    2904.47  E(vib)   ...       0.00
freq.    2975.50  E(vib)   ...       0.00
freq.    2978.51  E(vib)   ...       0.00
freq.    2993.87  E(vib)   ...       0.00
freq.    3056.86  E(vib)   ...       0.00
freq.    3105.96  E(vib)   ...       0.00
freq.    3627.98  E(vib)   ...       0.00

------------
INNER ENERGY
------------

The inner energy is: U= E(el) + E(ZPE) + E(vib) + E(rot) + E(trans)
    E(el)   - is the total energy from the electronic structure calculation
              = E(kin-el) + E(nuc-el) + E(el-el) + E(nuc-nuc)
    E(ZPE)  - the the zero temperature vibrational energy from the frequency calculation
    E(vib)  - the the finite temperature correction to E(ZPE) due to population
              of excited vibrational states
    E(rot)  - is the rotational thermal energy
    E(trans)- is the translational thermal energy

Summary of contributions to the inner energy U:
Electronic energy                ...   -344.39192003 Eh
Zero point energy                ...      0.10670999 Eh      66.96 kcal/mol
Thermal vibrational correction   ...      0.00492671 Eh       3.09 kcal/mol
Thermal rotational correction    ...      0.00141627 Eh       0.89 kcal/mol
Thermal translational correction ...      0.00141627 Eh       0.89 kcal/mol
-----------------------------------------------------------------------
Total thermal energy                   -344.27745079 Eh

Summary of corrections to the electronic energy:
(perhaps to be used in another calculation)
Total thermal correction                  0.00775925 Eh       4.87 kcal/mol
Non-thermal (ZPE) correction              0.10670999 Eh      66.96 kcal/mol
-----------------------------------------------------------------------
Total correction                          0.11446924 Eh      71.83 kcal/mol

--------
ENTHALPY
--------

The enthalpy is H = U + kB*T
                kB is Boltzmann's constant
Total free energy                 ...   -344.27745079 Eh
Thermal Enthalpy correction       ...      0.00094421 Eh       0.59 kcal/mol
-----------------------------------------------------------------------
Total Enthalpy                    ...   -344.27650658 Eh

Note: Only C1 symmetry has been detected, increase convergence thresholds
      if your molecule has a higher symmetry. Symmetry factor of 1.0 is
      used for the rotational entropy correction.

Note: Rotational entropy computed according to Herzberg
Infrared and Raman Spectra, Chapter V,1, Van Nostrand Reinhold, 1945
Point Group:  C1, Symmetry Number:   1
Rotational constants in cm-1:     0.143385     0.087123     0.081890

Vibrational entropy computed according to the QRRHO of S. Grimme
Chem.Eur.J. 2012 18 9955

-------
ENTROPY
-------

The entropy contributions are T*S = T*(S(el)+S(vib)+S(rot)+S(trans))
     S(el)   - electronic entropy
     S(vib)  - vibrational entropy
     S(rot)  - rotational entropy
     S(trans)- translational entropy
The entropies will be listed as multiplied by the temperature to get
units of energy

Electronic entropy                ...      0.00000000 Eh      0.00 kcal/mol
Vibrational entropy               ...      0.00836635 Eh      5.25 kcal/mol
Rotational entropy                ...      0.01276117 Eh      8.01 kcal/mol
Translational entropy             ...      0.01875460 Eh     11.77 kcal/mol
-----------------------------------------------------------------------
Final entropy term                ...      0.03988212 Eh     25.03 kcal/mol

In case the symmetry of your molecule has not been determined correctly
or in case you have a reason to use a different symmetry number we print
out the resulting rotational entropy values for sn=1,12 :
 --------------------------------------------------------
|  sn= 1 | S(rot)=       0.01276117 Eh      8.01 kcal/mol|
|  sn= 2 | S(rot)=       0.01210671 Eh      7.60 kcal/mol|
|  sn= 3 | S(rot)=       0.01172388 Eh      7.36 kcal/mol|
|  sn= 4 | S(rot)=       0.01145226 Eh      7.19 kcal/mol|
|  sn= 5 | S(rot)=       0.01124157 Eh      7.05 kcal/mol|
|  sn= 6 | S(rot)=       0.01106942 Eh      6.95 kcal/mol|
|  sn= 7 | S(rot)=       0.01092388 Eh      6.85 kcal/mol|
|  sn= 8 | S(rot)=       0.01079780 Eh      6.78 kcal/mol|
|  sn= 9 | S(rot)=       0.01068659 Eh      6.71 kcal/mol|
|  sn=10 | S(rot)=       0.01058711 Eh      6.64 kcal/mol|
|  sn=11 | S(rot)=       0.01049712 Eh      6.59 kcal/mol|
|  sn=12 | S(rot)=       0.01041497 Eh      6.54 kcal/mol|
 --------------------------------------------------------

-------------------
GIBBS FREE ENERGY
-------------------

The Gibbs free energy is G = H - T*S

Total enthalpy                    ...   -344.27650658 Eh
Total entropy correction          ...     -0.03988212 Eh    -25.03 kcal/mol
-----------------------------------------------------------------------
Final Gibbs free energy         ...   -344.31638870 Eh

For completeness - the Gibbs free energy minus the electronic energy
G-E(el)                           ...      0.07553133 Eh     47.40 kcal/mol

                             ****ORCA TERMINATED NORMALLY****
TOTAL RUN TIME: 0 days 0 hours 2 minutes 23 seconds 601 msec
