                         Program Version 5.0.3 -  RELEASE  -
|  1> !BLYP D3BJ def2-TZVP def2/J RIJCOSX Opt NumFreq xyzfile
|  2> %geom
|  3> NumHess true
|  4> end
|  5>
|  6> %Freq
|  7> Temp 298.15
|  8> end
|  9>
| 10> %pal
| 11> nprocs 6
| 12> end
| 13>
| 14> *xyzfile 0 1 acetone1.xyz
| 15>
| 16>                          ****END OF INPUT****
 Total Charge           Charge          ....    0
 Multiplicity           Mult            ....    1
 Number of Electrons    NEL             ....   32
Dispersion correction           -0.012283717
FINAL SINGLE POINT ENERGY      -193.170226503322
Dispersion correction            ... done
Dispersion correction           -0.012208978
FINAL SINGLE POINT ENERGY      -193.170756571036
Dispersion correction            ... done
Dispersion correction           -0.012188100
FINAL SINGLE POINT ENERGY      -193.170790612063
Dispersion correction            ... done
Dispersion correction           -0.012184070
FINAL SINGLE POINT ENERGY      -193.170794827999
Dispersion correction            ... done
Dispersion correction           -0.012183811
FINAL SINGLE POINT ENERGY      -193.170795516056
Dispersion correction            ... done
                    ***********************HURRAY********************

CARTESIAN COORDINATES (ANGSTROEM)
---------------------------------
  H      1.829721   -2.258562   -2.991955
  H     -0.453851   -0.834739   -3.150185
  O     -0.503138   -3.467056   -1.401178
  C      1.167260   -3.130601   -3.096932
  C     -1.029744   -1.760302   -3.009953
  C     -0.158559   -2.851503   -2.397799
  H     -1.897279   -1.569641   -2.372005
  H      1.649280   -4.006580   -2.653818
  H      1.017046   -3.286166   -4.174365
  H     -1.371326   -2.074790   -4.007180

 Multiplicity           Mult            ....    1
 Number of Electrons    NEL             ....   32
 Basis Dimension        Dim             ....  160

ORBITAL ENERGIES
----------------

  NO   OCC          E(Eh)            E(eV)
   0   2.0000     -18.761339      -510.5220
   1   2.0000      -9.996791      -272.0265
   2   2.0000      -9.914516      -269.7877
   3   2.0000      -9.914501      -269.7873
   4   2.0000      -0.942860       -25.6565
   5   2.0000      -0.692452       -18.8426
   6   2.0000      -0.638440       -17.3728
   7   2.0000      -0.474365       -12.9081
   8   2.0000      -0.410845       -11.1796
   9   2.0000      -0.406934       -11.0732
  10   2.0000      -0.398405       -10.8411
  11   2.0000      -0.359097        -9.7715
  12   2.0000      -0.347747        -9.4627
  13   2.0000      -0.335226        -9.1220
  14   2.0000      -0.310331        -8.4445
  15   2.0000      -0.204255        -5.5581
  16   0.0000      -0.055967        -1.5229
  17   0.0000       0.005892         0.1603
  18   0.0000       0.056879         1.5478
  19   0.0000       0.071978         1.9586
  20   0.0000       0.074138         2.0174

MULLIKEN ATOMIC CHARGES
-----------------------
   0 H :    0.110339
   1 H :    0.104458
   2 O :   -0.254148
   3 C :   -0.294981
   4 C :   -0.294963
   5 C :    0.184078
   6 H :    0.115319
   7 H :    0.115516
   8 H :    0.104265
   9 H :    0.110117
Sum of atomic charges:   -0.0000000

LOEWDIN ATOMIC CHARGES
----------------------
   0 H :    0.133829
   1 H :    0.129969
   2 O :    0.128319
   3 C :   -0.269092
   4 C :   -0.269071
   5 C :   -0.372686
   6 H :    0.127813
   7 H :    0.127887
   8 H :    0.129577
   9 H :    0.133455

  Mayer bond orders larger than 0.100000
B(  0-H ,  3-C ) :   0.9403 B(  1-H ,  4-C ) :   0.9435 B(  2-O ,  5-C ) :   2.1749
B(  3-C ,  5-C ) :   0.9336 B(  3-C ,  7-H ) :   0.9727 B(  3-C ,  8-H ) :   0.9440
B(  4-C ,  5-C ) :   0.9338 B(  4-C ,  6-H ) :   0.9728 B(  4-C ,  9-H ) :   0.9407

Dispersion correction           -0.012185048
FINAL SINGLE POINT ENERGY      -193.170796175220

DIPOLE MOMENT
-------------
                                X             Y             Z
Electronic contribution:     -1.12575      -2.00956       3.24238
Nuclear contribution   :      1.44933       2.58671      -4.17402
                        -----------------------------------------
Total Dipole Moment    :      0.32358       0.57715      -0.93164
                        -----------------------------------------
Magnitude (a.u.)       :      1.14270
Magnitude (Debye)      :      2.90450

VIBRATIONAL FREQUENCIES
-----------------------

Scaling factor for frequencies =  1.000000000 (already applied!)

   0:         0.00 cm**-1
   1:         0.00 cm**-1
   2:         0.00 cm**-1
   3:         0.00 cm**-1
   4:         0.00 cm**-1
   5:         0.00 cm**-1
   6:        33.01 cm**-1
   7:       118.16 cm**-1
   8:       373.36 cm**-1
   9:       473.64 cm**-1
  10:       519.63 cm**-1
  11:       751.90 cm**-1
  12:       857.31 cm**-1
  13:       860.31 cm**-1
  14:      1055.36 cm**-1
  15:      1084.38 cm**-1
  16:      1190.76 cm**-1
  17:      1343.07 cm**-1
  18:      1346.92 cm**-1
  19:      1425.71 cm**-1
  20:      1428.45 cm**-1
  21:      1435.89 cm**-1
  22:      1450.82 cm**-1
  23:      1705.12 cm**-1
  24:      2957.35 cm**-1
  25:      2961.88 cm**-1
  26:      3004.55 cm**-1
  27:      3011.07 cm**-1
  28:      3066.68 cm**-1
  29:      3067.92 cm**-1

IR SPECTRUM
-----------

 Mode   freq       eps      Int      T**2         TX        TY        TZ
       cm**-1   L/(mol*cm) km/mol    a.u.
----------------------------------------------------------------------------
  6:     33.01   0.000001    0.01  0.000011  (-0.003008  0.001118 -0.000549)
  7:    118.16   0.000001    0.00  0.000002  (-0.000343 -0.000610  0.001055)
  8:    373.36   0.000255    1.29  0.000213  (-0.002995 -0.007947  0.011880)
  9:    473.64   0.000073    0.37  0.000048  ( 0.005404  0.003290  0.002886)
 10:    519.63   0.002397   12.11  0.001439  ( 0.031964 -0.020389 -0.001389)
 11:    751.90   0.000598    3.02  0.000248  (-0.003831 -0.007823  0.013125)
 12:    857.31   0.002948   14.90  0.001073  ( 0.028447 -0.016239 -0.000129)
 13:    860.31   0.000017    0.09  0.000006  (-0.001060  0.001917 -0.001176)
 14:   1055.36   0.000030    0.15  0.000009  (-0.000567 -0.001476  0.002539)
 15:   1084.38   0.000374    1.89  0.000108  ( 0.006393  0.005356  0.006180)
 16:   1190.76   0.016224   81.99  0.004252  (-0.055847  0.033611  0.001785)
 17:   1343.07   0.008707   44.00  0.002023  ( 0.038241 -0.023504  0.002877)
 18:   1346.92   0.003988   20.16  0.000924  (-0.012998 -0.012509  0.024467)
 19:   1425.71   0.000166    0.84  0.000036  ( 0.004792 -0.001174 -0.003463)
 20:   1428.45   0.001450    7.33  0.000317  (-0.004619 -0.010590  0.013542)
 21:   1435.89   0.004282   21.64  0.000931  (-0.008306 -0.015624  0.024849)
 22:   1450.82   0.003705   18.72  0.000797  (-0.011613 -0.019001 -0.017347)
 23:   1705.12   0.032349  163.48  0.005920  ( 0.021702  0.038796 -0.062804)
 24:   2957.35   0.000357    1.81  0.000038  (-0.005631  0.002317 -0.000789)
 25:   2961.88   0.001601    8.09  0.000169  ( 0.003996  0.006837 -0.010294)
 26:   3004.55   0.000225    1.14  0.000023  ( 0.001836  0.003117 -0.003205)
 27:   3011.07   0.003857   19.49  0.000400  (-0.007513 -0.014079 -0.012044)
 28:   3066.68   0.002431   12.29  0.000247  ( 0.010944 -0.010673  0.003707)
 29:   3067.92   0.001924    9.72  0.000196  ( 0.009737  0.001451 -0.009938)

--------------------------
THERMOCHEMISTRY AT 298.15K
--------------------------

Temperature         ... 298.15 K
Pressure            ... 1.00 atm
Total Mass          ... 58.08 AMU

Throughout the following assumptions are being made:
  (1) The electronic state is orbitally nondegenerate
  (2) There are no thermally accessible electronically excited states
  (3) Hindered rotations indicated by low frequency modes are not
      treated as such but are treated as vibrations and this may
      cause some error
  (4) All equations used are the standard statistical mechanics
      equations for an ideal gas
  (5) All vibrations are strictly harmonic

freq.      33.01  E(vib)   ...       0.55
freq.     118.16  E(vib)   ...       0.44
freq.     373.36  E(vib)   ...       0.21
freq.     473.64  E(vib)   ...       0.15
freq.     519.63  E(vib)   ...       0.13
freq.     751.90  E(vib)   ...       0.06
freq.     857.31  E(vib)   ...       0.04
freq.     860.31  E(vib)   ...       0.04
freq.    1055.36  E(vib)   ...       0.02
freq.    1084.38  E(vib)   ...       0.02
freq.    1190.76  E(vib)   ...       0.01
freq.    1343.07  E(vib)   ...       0.01
freq.    1346.92  E(vib)   ...       0.01
freq.    1425.71  E(vib)   ...       0.00
freq.    1428.45  E(vib)   ...       0.00
freq.    1435.89  E(vib)   ...       0.00
freq.    1450.82  E(vib)   ...       0.00
freq.    1705.12  E(vib)   ...       0.00
freq.    2957.35  E(vib)   ...       0.00
freq.    2961.88  E(vib)   ...       0.00
freq.    3004.55  E(vib)   ...       0.00
freq.    3011.07  E(vib)   ...       0.00
freq.    3066.68  E(vib)   ...       0.00
freq.    3067.92  E(vib)   ...       0.00

------------
INNER ENERGY
------------

The inner energy is: U= E(el) + E(ZPE) + E(vib) + E(rot) + E(trans)
    E(el)   - is the total energy from the electronic structure calculation
              = E(kin-el) + E(nuc-el) + E(el-el) + E(nuc-nuc)
    E(ZPE)  - the the zero temperature vibrational energy from the frequency calculation
    E(vib)  - the the finite temperature correction to E(ZPE) due to population
              of excited vibrational states
    E(rot)  - is the rotational thermal energy
    E(trans)- is the translational thermal energy

Summary of contributions to the inner energy U:
Electronic energy                ...   -193.17079617 Eh
Zero point energy                ...      0.08092791 Eh      50.78 kcal/mol
Thermal vibrational correction   ...      0.00270173 Eh       1.70 kcal/mol
Thermal rotational correction    ...      0.00141627 Eh       0.89 kcal/mol
Thermal translational correction ...      0.00141627 Eh       0.89 kcal/mol
-----------------------------------------------------------------------
Total thermal energy                   -193.08433399 Eh

Summary of corrections to the electronic energy:
(perhaps to be used in another calculation)
Total thermal correction                  0.00553427 Eh       3.47 kcal/mol
Non-thermal (ZPE) correction              0.08092791 Eh      50.78 kcal/mol
-----------------------------------------------------------------------
Total correction                          0.08646219 Eh      54.26 kcal/mol

--------
ENTHALPY
--------

The enthalpy is H = U + kB*T
                kB is Boltzmann's constant
Total free energy                 ...   -193.08433399 Eh
Thermal Enthalpy correction       ...      0.00094421 Eh       0.59 kcal/mol
-----------------------------------------------------------------------
Total Enthalpy                    ...   -193.08338978 Eh

Note: Only C1 symmetry has been detected, increase convergence thresholds
      if your molecule has a higher symmetry. Symmetry factor of 1.0 is
      used for the rotational entropy correction.

Note: Rotational entropy computed according to Herzberg
Infrared and Raman Spectra, Chapter V,1, Van Nostrand Reinhold, 1945
Point Group:  C1, Symmetry Number:   1
Rotational constants in cm-1:     0.333654     0.280817     0.161657

Vibrational entropy computed according to the QRRHO of S. Grimme
Chem.Eur.J. 2012 18 9955

-------
ENTROPY
-------

The entropy contributions are T*S = T*(S(el)+S(vib)+S(rot)+S(trans))
     S(el)   - electronic entropy
     S(vib)  - vibrational entropy
     S(rot)  - rotational entropy
     S(trans)- translational entropy
The entropies will be listed as multiplied by the temperature to get
units of energy

Electronic entropy                ...      0.00000000 Eh      0.00 kcal/mol
Vibrational entropy               ...      0.00486626 Eh      3.05 kcal/mol
Rotational entropy                ...      0.01148886 Eh      7.21 kcal/mol
Translational entropy             ...      0.01810171 Eh     11.36 kcal/mol
-----------------------------------------------------------------------
Final entropy term                ...      0.03445683 Eh     21.62 kcal/mol

In case the symmetry of your molecule has not been determined correctly
or in case you have a reason to use a different symmetry number we print
out the resulting rotational entropy values for sn=1,12 :
 --------------------------------------------------------
|  sn= 1 | S(rot)=       0.01148886 Eh      7.21 kcal/mol|
|  sn= 2 | S(rot)=       0.01083440 Eh      6.80 kcal/mol|
|  sn= 3 | S(rot)=       0.01045157 Eh      6.56 kcal/mol|
|  sn= 4 | S(rot)=       0.01017995 Eh      6.39 kcal/mol|
|  sn= 5 | S(rot)=       0.00996926 Eh      6.26 kcal/mol|
|  sn= 6 | S(rot)=       0.00979711 Eh      6.15 kcal/mol|
|  sn= 7 | S(rot)=       0.00965157 Eh      6.06 kcal/mol|
|  sn= 8 | S(rot)=       0.00952549 Eh      5.98 kcal/mol|
|  sn= 9 | S(rot)=       0.00941428 Eh      5.91 kcal/mol|
|  sn=10 | S(rot)=       0.00931480 Eh      5.85 kcal/mol|
|  sn=11 | S(rot)=       0.00922481 Eh      5.79 kcal/mol|
|  sn=12 | S(rot)=       0.00914266 Eh      5.74 kcal/mol|
 --------------------------------------------------------

-------------------
GIBBS FREE ENERGY
-------------------

The Gibbs free energy is G = H - T*S

Total enthalpy                    ...   -193.08338978 Eh
Total entropy correction          ...     -0.03445683 Eh    -21.62 kcal/mol
-----------------------------------------------------------------------
Final Gibbs free energy         ...   -193.11784661 Eh

For completeness - the Gibbs free energy minus the electronic energy
G-E(el)                           ...      0.05294957 Eh     33.23 kcal/mol

                             ****ORCA TERMINATED NORMALLY****
TOTAL RUN TIME: 0 days 0 hours 1 minutes 42 seconds 521 msec
