                         Program Version 5.0.3 -  RELEASE  -
|  1> !BLYP D3BJ def2-SVP NEB-TS Freq xyzfile
|  2>
|  3> %Freq
|  4> Temp 298.15
|  5> end
|  6>
|  7> %pal
|  8> nprocs 6
|  9> end
| 10>
| 11> %NEB
| 12> NEB_END_XYZFILE "pr.xyz"
| 13> end
| 14>
| 15> *xyzfile 0 1 acetone.xyz
| 16>
| 17>                          ****END OF INPUT****
 Total Charge           Charge          ....    0
 Multiplicity           Mult            ....    1
 Number of Electrons    NEL             ....   32
Dispersion correction           -0.012499754
FINAL SINGLE POINT ENERGY      -192.841355682873
Dispersion correction            ... done
Dispersion correction           -0.012478549
FINAL SINGLE POINT ENERGY      -192.841412274970
Dispersion correction            ... done
Dispersion correction           -0.012482540
FINAL SINGLE POINT ENERGY      -192.841460275413
Dispersion correction            ... done
FINAL SINGLE POINT ENERGY      -192.841474581773
FINAL SINGLE POINT ENERGY      -192.841450640890
FINAL SINGLE POINT ENERGY      -192.841394814718
FINAL SINGLE POINT ENERGY      -192.841526069165
FINAL SINGLE POINT ENERGY      -192.841566031304
FINAL SINGLE POINT ENERGY      -192.841584913347
FINAL SINGLE POINT ENERGY      -192.841599222519
Dispersion correction           -0.012470140
FINAL SINGLE POINT ENERGY      -192.841608469102
Dispersion correction            ... done

CARTESIAN COORDINATES (ANGSTROEM)
---------------------------------
  O     -0.871735   -0.813531    1.152629
  C      1.199136   -0.616492   -0.113712
  C     -0.187553   -0.171302    0.252745
  C     -0.940128    0.957177   -0.211748
  H      1.883861    0.255109   -0.061202
  H      1.563862   -1.414379    0.557924
  H      1.222473   -0.966924   -1.166581
  H     -1.849701    0.644946   -0.761803
  H     -0.455241    1.843424   -0.656663
  H     -1.564974    0.281973    1.008412

Dispersion correction           -0.012474835
FINAL SINGLE POINT ENERGY      -192.841612588513
Dispersion correction            ... done
                    ***********************HURRAY********************
 Multiplicity           Mult            ....    1
 Number of Electrons    NEL             ....   32
 Basis Dimension        Dim             ....   86

ORBITAL ENERGIES
----------------

  NO   OCC          E(Eh)            E(eV)
   0   2.0000     -18.794635      -511.4280
   1   2.0000     -10.014942      -272.5204
   2   2.0000      -9.947114      -270.6747
   3   2.0000      -9.901613      -269.4366
   4   2.0000      -0.943126       -25.6638
   5   2.0000      -0.679309       -18.4849
   6   2.0000      -0.623571       -16.9682
   7   2.0000      -0.473886       -12.8951
   8   2.0000      -0.430303       -11.7091
   9   2.0000      -0.405870       -11.0443
  10   2.0000      -0.393801       -10.7159
  11   2.0000      -0.349314        -9.5053
  12   2.0000      -0.346638        -9.4325
  13   2.0000      -0.313106        -8.5200
  14   2.0000      -0.270285        -7.3548
  15   2.0000      -0.177537        -4.8310
  16   0.0000      -0.067650        -1.8408
  17   0.0000       0.028353         0.7715
  18   0.0000       0.062264         1.6943
  19   0.0000       0.084439         2.2977
  20   0.0000       0.091843         2.4992

-------
TIMINGS
-------

Dispersion correction           -0.012476667
FINAL SINGLE POINT ENERGY      -192.841613599221
                    ***********************HURRAY************************

DIPOLE MOMENT
-------------
                                X             Y             Z
Electronic contribution:     -1.35843      -1.58712       2.07222
Nuclear contribution   :      1.92951       1.59473      -2.59801
                        -----------------------------------------
Total Dipole Moment    :      0.57108       0.00761      -0.52579
                        -----------------------------------------
Magnitude (a.u.)       :      0.77630
Magnitude (Debye)      :      1.97320

Dispersion correction in the Hessian             ... done   (      0.7 sec)

VIBRATIONAL FREQUENCIES
-----------------------

Scaling factor for frequencies =  1.000000000  (already applied!)

   0:         0.00 cm**-1
   1:         0.00 cm**-1
   2:         0.00 cm**-1
   3:         0.00 cm**-1
   4:         0.00 cm**-1
   5:         0.00 cm**-1
   6:     -1942.75 cm**-1 ***imaginary mode***
   7:        71.67 cm**-1
   8:       369.49 cm**-1
   9:       416.62 cm**-1
  10:       559.06 cm**-1
  11:       640.53 cm**-1
  12:       735.23 cm**-1
  13:       864.43 cm**-1
  14:       946.09 cm**-1
  15:       981.54 cm**-1
  16:      1046.71 cm**-1
  17:      1109.88 cm**-1
  18:      1282.65 cm**-1
  19:      1334.97 cm**-1
  20:      1383.96 cm**-1
  21:      1403.26 cm**-1
  22:      1429.23 cm**-1
  23:      1491.36 cm**-1
  24:      1765.31 cm**-1
  25:      2960.46 cm**-1
  26:      3004.40 cm**-1
  27:      3025.18 cm**-1
  28:      3073.93 cm**-1
  29:      3083.69 cm**-1

IR SPECTRUM
-----------

 Mode   freq       eps      Int      T**2         TX        TY        TZ
       cm**-1   L/(mol*cm) km/mol    a.u.
----------------------------------------------------------------------------
  7:     71.67   0.000137    0.69  0.000598  ( 0.012811  0.006383  0.019824)
  8:    369.49   0.000811    4.10  0.000685  (-0.002555  0.024273 -0.009467)
  9:    416.62   0.004578   23.13  0.003429  (-0.030278  0.049409  0.008427)
 10:    559.06   0.004235   21.40  0.002364  (-0.018786  0.044357 -0.006589)
 11:    640.53   0.008730   44.12  0.004253  ( 0.037650 -0.053241  0.001129)
 12:    735.23   0.013466   68.05  0.005715  ( 0.033025 -0.062278 -0.027317)
 13:    864.43   0.000595    3.01  0.000215  (-0.001297  0.008837  0.011617)
 14:    946.09   0.000140    0.71  0.000046  ( 0.003694 -0.002997 -0.004868)
 15:    981.54   0.003713   18.76  0.001180  (-0.019773  0.027768 -0.004286)
 16:   1046.71   0.003004   15.18  0.000896  ( 0.008333 -0.003525  0.028525)
 17:   1109.88   0.012968   65.54  0.003646  (-0.055054  0.004994 -0.024298)
 18:   1282.65   0.005375   27.16  0.001308  ( 0.026906 -0.022885 -0.007747)
 19:   1334.97   0.008083   40.85  0.001889  (-0.034992 -0.002831  0.025631)
 20:   1383.96   0.009564   48.33  0.002156  ( 0.006866  0.032293 -0.032657)
 21:   1403.26   0.001937    9.79  0.000431  (-0.006806 -0.017567 -0.008713)
 22:   1429.23   0.010103   51.06  0.002206  ( 0.039283 -0.025617 -0.002557)
 23:   1491.36   0.037837  191.21  0.007917  ( 0.009802 -0.067166  0.057532)
 24:   1765.31   0.000999    5.05  0.000177  (-0.010700 -0.006638  0.004245)
 25:   2960.46   0.000286    1.44  0.000030  ( 0.004484 -0.002444 -0.002006)
 26:   3004.40   0.000232    1.17  0.000024  ( 0.004678  0.001426 -0.000410)
 27:   3025.18   0.000519    2.62  0.000054  (-0.001323 -0.005405 -0.004752)
 28:   3073.93   0.001591    8.04  0.000161  ( 0.007777 -0.008666  0.005089)
 29:   3083.69   0.002046   10.34  0.000207  ( 0.002717  0.012921 -0.005725)

--------------------------
THERMOCHEMISTRY AT 298.15K
--------------------------

Temperature         ... 298.15 K
Pressure            ... 1.00 atm
Total Mass          ... 58.08 AMU

Throughout the following assumptions are being made:
  (1) The electronic state is orbitally nondegenerate
  (2) There are no thermally accessible electronically excited states
  (3) Hindered rotations indicated by low frequency modes are not
      treated as such but are treated as vibrations and this may
      cause some error
  (4) All equations used are the standard statistical mechanics
      equations for an ideal gas
  (5) All vibrations are strictly harmonic

freq.      71.67  E(vib)   ...       0.50
freq.     369.49  E(vib)   ...       0.21
freq.     416.62  E(vib)   ...       0.18
freq.     559.06  E(vib)   ...       0.12
freq.     640.53  E(vib)   ...       0.09
freq.     735.23  E(vib)   ...       0.06
freq.     864.43  E(vib)   ...       0.04
freq.     946.09  E(vib)   ...       0.03
freq.     981.54  E(vib)   ...       0.02
freq.    1046.71  E(vib)   ...       0.02
freq.    1109.88  E(vib)   ...       0.02
freq.    1282.65  E(vib)   ...       0.01
freq.    1334.97  E(vib)   ...       0.01
freq.    1383.96  E(vib)   ...       0.00
freq.    1403.26  E(vib)   ...       0.00
freq.    1429.23  E(vib)   ...       0.00
freq.    1491.36  E(vib)   ...       0.00
freq.    1765.31  E(vib)   ...       0.00
freq.    2960.46  E(vib)   ...       0.00
freq.    3004.40  E(vib)   ...       0.00
freq.    3025.18  E(vib)   ...       0.00
freq.    3073.93  E(vib)   ...       0.00
freq.    3083.69  E(vib)   ...       0.00

------------
INNER ENERGY
------------

The inner energy is: U= E(el) + E(ZPE) + E(vib) + E(rot) + E(trans)
    E(el)   - is the total energy from the electronic structure calculation
              = E(kin-el) + E(nuc-el) + E(el-el) + E(nuc-nuc)
    E(ZPE)  - the the zero temperature vibrational energy from the frequency calculation
    E(vib)  - the the finite temperature correction to E(ZPE) due to population
              of excited vibrational states
    E(rot)  - is the rotational thermal energy
    E(trans)- is the translational thermal energy

Summary of contributions to the inner energy U:
Electronic energy                ...   -192.84161360 Eh
Zero point energy                ...      0.07513315 Eh      47.15 kcal/mol
Thermal vibrational correction   ...      0.00209805 Eh       1.32 kcal/mol
Thermal rotational correction    ...      0.00141627 Eh       0.89 kcal/mol
Thermal translational correction ...      0.00141627 Eh       0.89 kcal/mol
-----------------------------------------------------------------------
Total thermal energy                   -192.76154986 Eh

Summary of corrections to the electronic energy:
(perhaps to be used in another calculation)
Total thermal correction                  0.00493059 Eh       3.09 kcal/mol
Non-thermal (ZPE) correction              0.07513315 Eh      47.15 kcal/mol
-----------------------------------------------------------------------
Total correction                          0.08006374 Eh      50.24 kcal/mol

--------
ENTHALPY
--------

The enthalpy is H = U + kB*T
                kB is Boltzmann's constant
Total free energy                 ...   -192.76154986 Eh
Thermal Enthalpy correction       ...      0.00094421 Eh       0.59 kcal/mol
-----------------------------------------------------------------------
Total Enthalpy                    ...   -192.76060565 Eh

Note: Only C1 symmetry has been detected, increase convergence thresholds
      if your molecule has a higher symmetry. Symmetry factor of 1.0 is
      used for the rotational entropy correction.

Note: Rotational entropy computed according to Herzberg
Infrared and Raman Spectra, Chapter V,1, Van Nostrand Reinhold, 1945
Point Group:  C1, Symmetry Number:   1
Rotational constants in cm-1:     0.380396     0.266424     0.164809

Vibrational entropy computed according to the QRRHO of S. Grimme
Chem.Eur.J. 2012 18 9955

-------
ENTROPY
-------

The entropy contributions are T*S = T*(S(el)+S(vib)+S(rot)+S(trans))
     S(el)   - electronic entropy
     S(vib)  - vibrational entropy
     S(rot)  - rotational entropy
     S(trans)- translational entropy
The entropies will be listed as multiplied by the temperature to get
units of energy

Electronic entropy                ...      0.00000000 Eh      0.00 kcal/mol
Vibrational entropy               ...      0.00341353 Eh      2.14 kcal/mol
Rotational entropy                ...      0.01144269 Eh      7.18 kcal/mol
Translational entropy             ...      0.01810171 Eh     11.36 kcal/mol
-----------------------------------------------------------------------
Final entropy term                ...      0.03295793 Eh     20.68 kcal/mol

In case the symmetry of your molecule has not been determined correctly
or in case you have a reason to use a different symmetry number we print
out the resulting rotational entropy values for sn=1,12 :
 --------------------------------------------------------
|  sn= 1 | S(rot)=       0.01144269 Eh      7.18 kcal/mol|
|  sn= 2 | S(rot)=       0.01078823 Eh      6.77 kcal/mol|
|  sn= 3 | S(rot)=       0.01040540 Eh      6.53 kcal/mol|
|  sn= 4 | S(rot)=       0.01013377 Eh      6.36 kcal/mol|
|  sn= 5 | S(rot)=       0.00992309 Eh      6.23 kcal/mol|
|  sn= 6 | S(rot)=       0.00975094 Eh      6.12 kcal/mol|
|  sn= 7 | S(rot)=       0.00960540 Eh      6.03 kcal/mol|
|  sn= 8 | S(rot)=       0.00947932 Eh      5.95 kcal/mol|
|  sn= 9 | S(rot)=       0.00936811 Eh      5.88 kcal/mol|
|  sn=10 | S(rot)=       0.00926863 Eh      5.82 kcal/mol|
|  sn=11 | S(rot)=       0.00917864 Eh      5.76 kcal/mol|
|  sn=12 | S(rot)=       0.00909648 Eh      5.71 kcal/mol|
 --------------------------------------------------------

-------------------
GIBBS FREE ENERGY
-------------------

The Gibbs free energy is G = H - T*S

Total enthalpy                    ...   -192.76060565 Eh
Total entropy correction          ...     -0.03295793 Eh    -20.68 kcal/mol
-----------------------------------------------------------------------
Final Gibbs free energy         ...   -192.79356358 Eh

For completeness - the Gibbs free energy minus the electronic energy
G-E(el)                           ...      0.04805002 Eh     30.15 kcal/mol

                             ****ORCA TERMINATED NORMALLY****
TOTAL RUN TIME: 0 days 0 hours 20 minutes 11 seconds 133 msec
