                         Program Version 5.0.3 -  RELEASE  -
|  1> !BLYP D3BJ def2-TZVP def2/J RIJCOSX Opt NumFreq xyzfile
|  2> %geom
|  3> NumHess true
|  4> end
|  5>
|  6> %Freq
|  7> Temp 298.15
|  8> end
|  9>
| 10> %pal
| 11> nprocs 6
| 12> end
| 13>
| 14> *xyzfile 0 1 propan2ol2.xyz
| 15>
| 16>                          ****END OF INPUT****
 Total Charge           Charge          ....    0
 Multiplicity           Mult            ....    1
 Number of Electrons    NEL             ....   32
Dispersion correction           -0.012327603
FINAL SINGLE POINT ENERGY      -193.099795803602
Dispersion correction            ... done
Dispersion correction           -0.012299645
FINAL SINGLE POINT ENERGY      -193.121282500899
Dispersion correction            ... done
Dispersion correction           -0.012300792
FINAL SINGLE POINT ENERGY      -193.133446524444
Dispersion correction            ... done
FINAL SINGLE POINT ENERGY      -193.140884358562
FINAL SINGLE POINT ENERGY      -193.145562285677
FINAL SINGLE POINT ENERGY      -193.148180067327
FINAL SINGLE POINT ENERGY      -193.149141607615
FINAL SINGLE POINT ENERGY      -193.149539896264
FINAL SINGLE POINT ENERGY      -193.150049860709
FINAL SINGLE POINT ENERGY      -193.150486218297
FINAL SINGLE POINT ENERGY      -193.150780391463
FINAL SINGLE POINT ENERGY      -193.150923731318
FINAL SINGLE POINT ENERGY      -193.150965238113
Dispersion correction            ... done
Dispersion correction           -0.012281012
FINAL SINGLE POINT ENERGY      -193.150984581057
Dispersion correction            ... done
Dispersion correction           -0.012282200
FINAL SINGLE POINT ENERGY      -193.150986286659
Dispersion correction            ... done
                    ***********************HURRAY********************

CARTESIAN COORDINATES (ANGSTROEM)
---------------------------------
  O     -0.402437   -1.209734    0.189092
  C      1.429055    0.288734    0.009961
  C     -0.062681    0.123450    0.032867
  C     -0.960919    1.114526   -0.080758
  H      1.702847    1.340837   -0.112930
  H      1.869613   -0.088187    0.943467
  H      1.865033   -0.292828   -0.814218
  H     -2.033722    0.926126   -0.056480
  H     -0.635918    2.142783   -0.202242
  H     -1.374791   -1.286297    0.198921

 Multiplicity           Mult            ....    1
 Number of Electrons    NEL             ....   32
 Basis Dimension        Dim             ....  160

ORBITAL ENERGIES
----------------

  NO   OCC          E(Eh)            E(eV)
   0   2.0000     -18.799986      -511.5736
   1   2.0000      -9.966624      -271.2056
   2   2.0000      -9.906451      -269.5682
   3   2.0000      -9.886046      -269.0130
   4   2.0000      -0.956718       -26.0336
   5   2.0000      -0.696627       -18.9562
   6   2.0000      -0.620408       -16.8822
   7   2.0000      -0.527754       -14.3609
   8   2.0000      -0.436053       -11.8656
   9   2.0000      -0.407214       -11.0809
  10   2.0000      -0.380944       -10.3660
  11   2.0000      -0.350044        -9.5252
  12   2.0000      -0.326203        -8.8764
  13   2.0000      -0.314723        -8.5641
  14   2.0000      -0.310126        -8.4390
  15   2.0000      -0.194320        -5.2877
  16   0.0000      -0.004597        -0.1251
  17   0.0000       0.002901         0.0789
  18   0.0000       0.042937         1.1684
  19   0.0000       0.066974         1.8225
  20   0.0000       0.076909         2.0928

MULLIKEN ATOMIC CHARGES
-----------------------
   0 O :   -0.382702
   1 C :   -0.301006
   2 C :    0.224917
   3 C :   -0.333893
   4 H :    0.102935
   5 H :    0.109984
   6 H :    0.109899
   7 H :    0.083402
   8 H :    0.092696
   9 H :    0.293769
Sum of atomic charges:    0.0000000

LOEWDIN ATOMIC CHARGES
----------------------
   0 O :    0.065547
   1 C :   -0.257838
   2 C :   -0.352342
   3 C :   -0.267552
   4 H :    0.128650
   5 H :    0.129658
   6 H :    0.129653
   7 H :    0.114533
   8 H :    0.123254
   9 H :    0.186437

  Mayer bond orders larger than 0.100000
B(  0-O ,  2-C ) :   1.1329 B(  0-O ,  9-H ) :   0.8922 B(  1-C ,  2-C ) :   0.9696
B(  1-C ,  4-H ) :   0.9830 B(  1-C ,  5-H ) :   0.9566 B(  1-C ,  6-H ) :   0.9566
B(  2-C ,  3-C ) :   1.7821 B(  3-C ,  7-H ) :   0.9688 B(  3-C ,  8-H ) :   0.9510

Dispersion correction           -0.012283099
FINAL SINGLE POINT ENERGY      -193.150986799669

DIPOLE MOMENT
-------------
                                X             Y             Z
Electronic contribution:     -1.51006      -2.30250       0.27313
Nuclear contribution   :      1.31697       2.38522      -0.28345
                        -----------------------------------------
Total Dipole Moment    :     -0.19309       0.08271      -0.01031
                        -----------------------------------------
Magnitude (a.u.)       :      0.21032
Magnitude (Debye)      :      0.53458

VIBRATIONAL FREQUENCIES
-----------------------

Scaling factor for frequencies =  1.000000000 (already applied!)

   0:         0.00 cm**-1
   1:         0.00 cm**-1
   2:         0.00 cm**-1
   3:         0.00 cm**-1
   4:         0.00 cm**-1
   5:         0.00 cm**-1
   6:       178.47 cm**-1
   7:       403.18 cm**-1
   8:       429.00 cm**-1
   9:       470.58 cm**-1
  10:       488.02 cm**-1
  11:       698.93 cm**-1
  12:       768.50 cm**-1
  13:       833.43 cm**-1
  14:       950.00 cm**-1
  15:       993.75 cm**-1
  16:      1045.28 cm**-1
  17:      1165.22 cm**-1
  18:      1317.14 cm**-1
  19:      1378.84 cm**-1
  20:      1417.05 cm**-1
  21:      1439.10 cm**-1
  22:      1456.45 cm**-1
  23:      1654.60 cm**-1
  24:      2963.96 cm**-1
  25:      3005.64 cm**-1
  26:      3059.54 cm**-1
  27:      3075.00 cm**-1
  28:      3167.23 cm**-1
  29:      3631.78 cm**-1

IR SPECTRUM
-----------

 Mode   freq       eps      Int      T**2         TX        TY        TZ
       cm**-1   L/(mol*cm) km/mol    a.u.
----------------------------------------------------------------------------
  6:    178.47   0.000236    1.19  0.000413  (-0.000174 -0.002030 -0.020226)
  7:    403.18   0.000241    1.22  0.000186  (-0.005999  0.012127 -0.001811)
  8:    429.00   0.018506   93.52  0.013462  (-0.002501  0.013356  0.115227)
  9:    470.58   0.003288   16.62  0.002180  ( 0.031434  0.034525 -0.000635)
 10:    488.02   0.000134    0.68  0.000086  ( 0.000911  0.001771  0.009042)
 11:    698.93   0.000135    0.68  0.000060  (-0.000186 -0.001254 -0.007660)
 12:    768.50   0.013872   70.10  0.005633  ( 0.000216 -0.008493 -0.074570)
 13:    833.43   0.001358    6.86  0.000509  ( 0.004051 -0.021976  0.003029)
 14:    950.00   0.005320   26.88  0.001748  (-0.002001 -0.041501  0.004604)
 15:    993.75   0.006434   32.51  0.002020  (-0.014888 -0.042144  0.004750)
 16:   1045.28   0.000000    0.00  0.000000  (-0.000195 -0.000004 -0.000311)
 17:   1165.22   0.025636  129.55  0.006866  ( 0.020667  0.079725 -0.009089)
 18:   1317.14   0.002404   12.15  0.000570  (-0.003244 -0.023463  0.002914)
 19:   1378.84   0.003101   15.67  0.000702  ( 0.013906  0.022421 -0.002378)
 20:   1417.05   0.001422    7.19  0.000313  (-0.004147  0.017109 -0.001790)
 21:   1439.10   0.001722    8.70  0.000373  ( 0.000471 -0.002721 -0.019125)
 22:   1456.45   0.001815    9.17  0.000389  (-0.006230  0.018497 -0.002806)
 23:   1654.60   0.026733  135.10  0.005042  (-0.034096  0.061880 -0.007091)
 24:   2963.96   0.004233   21.39  0.000446  (-0.020191  0.006126 -0.000669)
 25:   3005.64   0.002776   14.03  0.000288  (-0.000044 -0.001923 -0.016867)
 26:   3059.54   0.003244   16.39  0.000331  (-0.001275 -0.018024  0.002085)
 27:   3075.00   0.001107    5.60  0.000112  ( 0.010129  0.003105 -0.000362)
 28:   3167.23   0.002012   10.17  0.000198  ( 0.010302  0.009527 -0.001155)
 29:   3631.78   0.003353   16.95  0.000288  (-0.012134 -0.011794  0.001349)

--------------------------
THERMOCHEMISTRY AT 298.15K
--------------------------

Temperature         ... 298.15 K
Pressure            ... 1.00 atm
Total Mass          ... 58.08 AMU

Throughout the following assumptions are being made:
  (1) The electronic state is orbitally nondegenerate
  (2) There are no thermally accessible electronically excited states
  (3) Hindered rotations indicated by low frequency modes are not
      treated as such but are treated as vibrations and this may
      cause some error
  (4) All equations used are the standard statistical mechanics
      equations for an ideal gas
  (5) All vibrations are strictly harmonic

freq.     178.47  E(vib)   ...       0.37
freq.     403.18  E(vib)   ...       0.19
freq.     429.00  E(vib)   ...       0.18
freq.     470.58  E(vib)   ...       0.15
freq.     488.02  E(vib)   ...       0.15
freq.     698.93  E(vib)   ...       0.07
freq.     768.50  E(vib)   ...       0.06
freq.     833.43  E(vib)   ...       0.04
freq.     950.00  E(vib)   ...       0.03
freq.     993.75  E(vib)   ...       0.02
freq.    1045.28  E(vib)   ...       0.02
freq.    1165.22  E(vib)   ...       0.01
freq.    1317.14  E(vib)   ...       0.01
freq.    1378.84  E(vib)   ...       0.01
freq.    1417.05  E(vib)   ...       0.00
freq.    1439.10  E(vib)   ...       0.00
freq.    1456.45  E(vib)   ...       0.00
freq.    1654.60  E(vib)   ...       0.00
freq.    2963.96  E(vib)   ...       0.00
freq.    3005.64  E(vib)   ...       0.00
freq.    3059.54  E(vib)   ...       0.00
freq.    3075.00  E(vib)   ...       0.00
freq.    3167.23  E(vib)   ...       0.00
freq.    3631.78  E(vib)   ...       0.00

------------
INNER ENERGY
------------

The inner energy is: U= E(el) + E(ZPE) + E(vib) + E(rot) + E(trans)
    E(el)   - is the total energy from the electronic structure calculation
              = E(kin-el) + E(nuc-el) + E(el-el) + E(nuc-nuc)
    E(ZPE)  - the the zero temperature vibrational energy from the frequency calculation
    E(vib)  - the the finite temperature correction to E(ZPE) due to population
              of excited vibrational states
    E(rot)  - is the rotational thermal energy
    E(trans)- is the translational thermal energy

Summary of contributions to the inner energy U:
Electronic energy                ...   -193.15098680 Eh
Zero point energy                ...      0.08199276 Eh      51.45 kcal/mol
Thermal vibrational correction   ...      0.00210699 Eh       1.32 kcal/mol
Thermal rotational correction    ...      0.00141627 Eh       0.89 kcal/mol
Thermal translational correction ...      0.00141627 Eh       0.89 kcal/mol
-----------------------------------------------------------------------
Total thermal energy                   -193.06405450 Eh

Summary of corrections to the electronic energy:
(perhaps to be used in another calculation)
Total thermal correction                  0.00493954 Eh       3.10 kcal/mol
Non-thermal (ZPE) correction              0.08199276 Eh      51.45 kcal/mol
-----------------------------------------------------------------------
Total correction                          0.08693230 Eh      54.55 kcal/mol

--------
ENTHALPY
--------

The enthalpy is H = U + kB*T
                kB is Boltzmann's constant
Total free energy                 ...   -193.06405450 Eh
Thermal Enthalpy correction       ...      0.00094421 Eh       0.59 kcal/mol
-----------------------------------------------------------------------
Total Enthalpy                    ...   -193.06311030 Eh

Note: Only C1 symmetry has been detected, increase convergence thresholds
      if your molecule has a higher symmetry. Symmetry factor of 1.0 is
      used for the rotational entropy correction.

Note: Rotational entropy computed according to Herzberg
Infrared and Raman Spectra, Chapter V,1, Van Nostrand Reinhold, 1945
Point Group:  C1, Symmetry Number:   1
Rotational constants in cm-1:     0.332185     0.299575     0.162306

Vibrational entropy computed according to the QRRHO of S. Grimme
Chem.Eur.J. 2012 18 9955

-------
ENTROPY
-------

The entropy contributions are T*S = T*(S(el)+S(vib)+S(rot)+S(trans))
     S(el)   - electronic entropy
     S(vib)  - vibrational entropy
     S(rot)  - rotational entropy
     S(trans)- translational entropy
The entropies will be listed as multiplied by the temperature to get
units of energy

Electronic entropy                ...      0.00000000 Eh      0.00 kcal/mol
Vibrational entropy               ...      0.00320233 Eh      2.01 kcal/mol
Rotational entropy                ...      0.01145853 Eh      7.19 kcal/mol
Translational entropy             ...      0.01810171 Eh     11.36 kcal/mol
-----------------------------------------------------------------------
Final entropy term                ...      0.03276257 Eh     20.56 kcal/mol

In case the symmetry of your molecule has not been determined correctly
or in case you have a reason to use a different symmetry number we print
out the resulting rotational entropy values for sn=1,12 :
 --------------------------------------------------------
|  sn= 1 | S(rot)=       0.01145853 Eh      7.19 kcal/mol|
|  sn= 2 | S(rot)=       0.01080407 Eh      6.78 kcal/mol|
|  sn= 3 | S(rot)=       0.01042124 Eh      6.54 kcal/mol|
|  sn= 4 | S(rot)=       0.01014961 Eh      6.37 kcal/mol|
|  sn= 5 | S(rot)=       0.00993893 Eh      6.24 kcal/mol|
|  sn= 6 | S(rot)=       0.00976678 Eh      6.13 kcal/mol|
|  sn= 7 | S(rot)=       0.00962123 Eh      6.04 kcal/mol|
|  sn= 8 | S(rot)=       0.00949516 Eh      5.96 kcal/mol|
|  sn= 9 | S(rot)=       0.00938395 Eh      5.89 kcal/mol|
|  sn=10 | S(rot)=       0.00928447 Eh      5.83 kcal/mol|
|  sn=11 | S(rot)=       0.00919448 Eh      5.77 kcal/mol|
|  sn=12 | S(rot)=       0.00911232 Eh      5.72 kcal/mol|
 --------------------------------------------------------

-------------------
GIBBS FREE ENERGY
-------------------

The Gibbs free energy is G = H - T*S

Total enthalpy                    ...   -193.06311030 Eh
Total entropy correction          ...     -0.03276257 Eh    -20.56 kcal/mol
-----------------------------------------------------------------------
Final Gibbs free energy         ...   -193.09587286 Eh

For completeness - the Gibbs free energy minus the electronic energy
G-E(el)                           ...      0.05511394 Eh     34.58 kcal/mol

                             ****ORCA TERMINATED NORMALLY****
TOTAL RUN TIME: 0 days 0 hours 2 minutes 10 seconds 371 msec
