                         Program Version 5.0.3 -  RELEASE  -
|  1> !BLYP D3BJ def2-TZVP def2/J RIJCOSX OptTS NumFreq xyzfile
|  2> %geom
|  3> NumHess true
|  4> Calc_hess true
|  5> TS_Mode {B 3 9}
|  6> end
|  7> end
|  8>
|  9> %Freq
| 10> Temp 298.15
| 11> end
| 12>
| 13> %pal
| 14> nprocs 6
| 15> end
| 16>
| 17> *xyzfile 0 1 ts1.xyz
| 18>
| 19>                          ****END OF INPUT****
 Total Charge           Charge          ....    0
 Multiplicity           Mult            ....    1
 Number of Electrons    NEL             ....   32
Dispersion correction           -0.012673004
FINAL SINGLE POINT ENERGY      -193.043588536859
Dispersion correction            ... done
Dispersion correction           -0.012593093
FINAL SINGLE POINT ENERGY      -193.040263839113
Dispersion correction            ... done
Dispersion correction           -0.012443765
FINAL SINGLE POINT ENERGY      -193.036656175217
Dispersion correction            ... done
FINAL SINGLE POINT ENERGY      -193.030770902991
FINAL SINGLE POINT ENERGY      -193.029917039390
FINAL SINGLE POINT ENERGY      -193.031464879752
FINAL SINGLE POINT ENERGY      -193.036090963882
FINAL SINGLE POINT ENERGY      -193.042018285378
FINAL SINGLE POINT ENERGY      -193.047420410683
FINAL SINGLE POINT ENERGY      -193.052295838733
FINAL SINGLE POINT ENERGY      -193.069930321700
FINAL SINGLE POINT ENERGY      -193.069967121409
FINAL SINGLE POINT ENERGY      -193.069966693871
FINAL SINGLE POINT ENERGY      -193.069951834364
FINAL SINGLE POINT ENERGY      -193.069989951443
FINAL SINGLE POINT ENERGY      -193.069991756917
FINAL SINGLE POINT ENERGY      -193.069992433950
Dispersion correction            ... done
Dispersion correction           -0.012534222
FINAL SINGLE POINT ENERGY      -193.069992870507
Dispersion correction            ... done
Dispersion correction           -0.012536186
FINAL SINGLE POINT ENERGY      -193.069993425003
Dispersion correction            ... done
                    ***********************HURRAY********************

CARTESIAN COORDINATES (ANGSTROEM)
---------------------------------
  O     -0.482727   -1.119081    0.489465
  C      1.471376    0.235319   -0.018678
  C     -0.004370    0.033465    0.117891
  C     -1.071333    0.963160   -0.058734
  H      1.744797    1.222978    0.374672
  H      2.039806   -0.543125    0.499035
  H      1.740539    0.235675   -1.085170
  H     -1.727836    0.699824   -0.895742
  H     -0.916345    2.039105    0.039515
  H     -1.526787   -0.333639    0.604917

 Multiplicity           Mult            ....    1
 Number of Electrons    NEL             ....   32
 Basis Dimension        Dim             ....  160

ORBITAL ENERGIES
----------------

  NO   OCC          E(Eh)            E(eV)
   0   2.0000     -18.789514      -511.2887
   1   2.0000     -10.006356      -272.2868
   2   2.0000      -9.927539      -270.1421
   3   2.0000      -9.888896      -269.0906
   4   2.0000      -0.959159       -26.1000
   5   2.0000      -0.694669       -18.9029
   6   2.0000      -0.638554       -17.3759
   7   2.0000      -0.485560       -13.2128
   8   2.0000      -0.440724       -11.9927
   9   2.0000      -0.415269       -11.3000
  10   2.0000      -0.402813       -10.9611
  11   2.0000      -0.356661        -9.7052
  12   2.0000      -0.355121        -9.6633
  13   2.0000      -0.321252        -8.7417
  14   2.0000      -0.278366        -7.5747
  15   2.0000      -0.188042        -5.1169
  16   0.0000      -0.077069        -2.0972
  17   0.0000       0.007372         0.2006
  18   0.0000       0.045508         1.2383
  19   0.0000       0.066052         1.7974
  20   0.0000       0.075665         2.0590

MULLIKEN ATOMIC CHARGES
-----------------------
   0 O :   -0.330304
   1 C :   -0.304585
   2 C :    0.314214
   3 C :   -0.538063
   4 H :    0.124645
   5 H :    0.125037
   6 H :    0.125921
   7 H :    0.142890
   8 H :    0.091507
   9 H :    0.248737
Sum of atomic charges:   -0.0000000

LOEWDIN ATOMIC CHARGES
----------------------
   0 O :    0.066309
   1 C :   -0.251808
   2 C :   -0.375792
   3 C :   -0.393900
   4 H :    0.141545
   5 H :    0.131346
   6 H :    0.143915
   7 H :    0.142982
   8 H :    0.113247
   9 H :    0.282157

  Mayer bond orders larger than 0.100000
B(  0-O ,  2-C ) :   1.5144 B(  0-O ,  9-H ) :   0.4478 B(  1-C ,  2-C ) :   0.9530
B(  1-C ,  4-H ) :   0.9534 B(  1-C ,  5-H ) :   0.9766 B(  1-C ,  6-H ) :   0.9372
B(  2-C ,  3-C ) :   1.2133 B(  3-C ,  7-H ) :   0.9333 B(  3-C ,  8-H ) :   0.9457
B(  3-C ,  9-H ) :   0.4537

Dispersion correction           -0.012536618
FINAL SINGLE POINT ENERGY      -193.069993427357

DIPOLE MOMENT
-------------
                                X             Y             Z
Electronic contribution:     -0.82185      -2.58636       0.87670
Nuclear contribution   :      1.41935       3.07563      -1.18980
                        -----------------------------------------
Total Dipole Moment    :      0.59750       0.48928      -0.31310
                        -----------------------------------------
Magnitude (a.u.)       :      0.83332
Magnitude (Debye)      :      2.11813

VIBRATIONAL FREQUENCIES
-----------------------

Scaling factor for frequencies =  1.000000000 (already applied!)

   0:         0.00 cm**-1
   1:         0.00 cm**-1
   2:         0.00 cm**-1
   3:         0.00 cm**-1
   4:         0.00 cm**-1
   5:         0.00 cm**-1
   6:     -1944.91 cm**-1 ***imaginary mode***
   7:        76.47 cm**-1
   8:       372.26 cm**-1
   9:       422.39 cm**-1
  10:       563.38 cm**-1
  11:       629.19 cm**-1
  12:       751.74 cm**-1
  13:       870.56 cm**-1
  14:       953.44 cm**-1
  15:       994.61 cm**-1
  16:      1066.56 cm**-1
  17:      1099.41 cm**-1
  18:      1294.37 cm**-1
  19:      1358.66 cm**-1
  20:      1399.09 cm**-1
  21:      1438.41 cm**-1
  22:      1444.05 cm**-1
  23:      1467.63 cm**-1
  24:      1729.54 cm**-1
  25:      2967.07 cm**-1
  26:      3016.91 cm**-1
  27:      3018.92 cm**-1
  28:      3062.58 cm**-1
  29:      3087.44 cm**-1

IR SPECTRUM
-----------

 Mode   freq       eps      Int      T**2         TX        TY        TZ
       cm**-1   L/(mol*cm) km/mol    a.u.
----------------------------------------------------------------------------
  7:     76.47   0.000040    0.20  0.000162  ( 0.010309  0.001496  0.007310)
  8:    372.26   0.000977    4.94  0.000819  (-0.010105  0.026678 -0.002197)
  9:    422.39   0.005072   25.63  0.003748  ( 0.049195 -0.031837 -0.017714)
 10:    563.38   0.004205   21.25  0.002329  (-0.031895  0.035937  0.004524)
 11:    629.19   0.007753   39.18  0.003845  ( 0.052196 -0.032925 -0.006077)
 12:    751.74   0.014962   75.61  0.006211  (-0.059067  0.033445  0.040047)
 13:    870.56   0.000500    2.53  0.000179  ( 0.006910  0.000994 -0.011430)
 14:    953.44   0.000437    2.21  0.000143  ( 0.010834  0.003001 -0.004100)
 15:    994.61   0.005210   26.33  0.001635  (-0.034312  0.021259 -0.002340)
 16:   1066.56   0.002476   12.51  0.000724  (-0.001702 -0.016134  0.021475)
 17:   1099.41   0.013420   67.82  0.003809  (-0.053480 -0.003232 -0.030637)
 18:   1294.37   0.008933   45.14  0.002154  (-0.044116 -0.001444  0.014332)
 19:   1358.66   0.010221   51.65  0.002348  ( 0.028600  0.034380 -0.018645)
 20:   1399.09   0.028968  146.39  0.006461  ( 0.022083 -0.075044  0.018494)
 21:   1438.41   0.005164   26.10  0.001120  ( 0.025948 -0.017547 -0.011800)
 22:   1444.05   0.002613   13.20  0.000565  (-0.020024  0.000509 -0.012783)
 23:   1467.63   0.021858  110.46  0.004648  (-0.030551  0.056832 -0.022011)
 24:   1729.54   0.001456    7.36  0.000263  ( 0.011928  0.010667  0.002572)
 25:   2967.07   0.000371    1.87  0.000039  ( 0.005887 -0.000687 -0.001964)
 26:   3016.91   0.000167    0.84  0.000017  ( 0.003118  0.002558 -0.001010)
 27:   3018.92   0.001057    5.34  0.000109  (-0.004763 -0.005097 -0.007786)
 28:   3062.58   0.002428   12.27  0.000247  (-0.010961  0.010148 -0.004923)
 29:   3087.44   0.002249   11.36  0.000227  (-0.000279  0.015037  0.001033)

--------------------------
THERMOCHEMISTRY AT 298.15K
--------------------------

Temperature         ... 298.15 K
Pressure            ... 1.00 atm
Total Mass          ... 58.08 AMU

Throughout the following assumptions are being made:
  (1) The electronic state is orbitally nondegenerate
  (2) There are no thermally accessible electronically excited states
  (3) Hindered rotations indicated by low frequency modes are not
      treated as such but are treated as vibrations and this may
      cause some error
  (4) All equations used are the standard statistical mechanics
      equations for an ideal gas
  (5) All vibrations are strictly harmonic

freq.      76.47  E(vib)   ...       0.49
freq.     372.26  E(vib)   ...       0.21
freq.     422.39  E(vib)   ...       0.18
freq.     563.38  E(vib)   ...       0.11
freq.     629.19  E(vib)   ...       0.09
freq.     751.74  E(vib)   ...       0.06
freq.     870.56  E(vib)   ...       0.04
freq.     953.44  E(vib)   ...       0.03
freq.     994.61  E(vib)   ...       0.02
freq.    1066.56  E(vib)   ...       0.02
freq.    1099.41  E(vib)   ...       0.02
freq.    1294.37  E(vib)   ...       0.01
freq.    1358.66  E(vib)   ...       0.01
freq.    1399.09  E(vib)   ...       0.00
freq.    1438.41  E(vib)   ...       0.00
freq.    1444.05  E(vib)   ...       0.00
freq.    1467.63  E(vib)   ...       0.00
freq.    1729.54  E(vib)   ...       0.00
freq.    2967.07  E(vib)   ...       0.00
freq.    3016.91  E(vib)   ...       0.00
freq.    3018.92  E(vib)   ...       0.00
freq.    3062.58  E(vib)   ...       0.00
freq.    3087.44  E(vib)   ...       0.00

------------
INNER ENERGY
------------

The inner energy is: U= E(el) + E(ZPE) + E(vib) + E(rot) + E(trans)
    E(el)   - is the total energy from the electronic structure calculation
              = E(kin-el) + E(nuc-el) + E(el-el) + E(nuc-nuc)
    E(ZPE)  - the the zero temperature vibrational energy from the frequency calculation
    E(vib)  - the the finite temperature correction to E(ZPE) due to population
              of excited vibrational states
    E(rot)  - is the rotational thermal energy
    E(trans)- is the translational thermal energy

Summary of contributions to the inner energy U:
Electronic energy                ...   -193.06999343 Eh
Zero point energy                ...      0.07537245 Eh      47.30 kcal/mol
Thermal vibrational correction   ...      0.00206895 Eh       1.30 kcal/mol
Thermal rotational correction    ...      0.00141627 Eh       0.89 kcal/mol
Thermal translational correction ...      0.00141627 Eh       0.89 kcal/mol
-----------------------------------------------------------------------
Total thermal energy                   -192.98971948 Eh

Summary of corrections to the electronic energy:
(perhaps to be used in another calculation)
Total thermal correction                  0.00490149 Eh       3.08 kcal/mol
Non-thermal (ZPE) correction              0.07537245 Eh      47.30 kcal/mol
-----------------------------------------------------------------------
Total correction                          0.08027395 Eh      50.37 kcal/mol

--------
ENTHALPY
--------

The enthalpy is H = U + kB*T
                kB is Boltzmann's constant
Total free energy                 ...   -192.98971948 Eh
Thermal Enthalpy correction       ...      0.00094421 Eh       0.59 kcal/mol
-----------------------------------------------------------------------
Total Enthalpy                    ...   -192.98877527 Eh

Note: Only C1 symmetry has been detected, increase convergence thresholds
      if your molecule has a higher symmetry. Symmetry factor of 1.0 is
      used for the rotational entropy correction.

Note: Rotational entropy computed according to Herzberg
Infrared and Raman Spectra, Chapter V,1, Van Nostrand Reinhold, 1945
Point Group:  C1, Symmetry Number:   1
Rotational constants in cm-1:     0.382137     0.268573     0.165885

Vibrational entropy computed according to the QRRHO of S. Grimme
Chem.Eur.J. 2012 18 9955

-------
ENTROPY
-------

The entropy contributions are T*S = T*(S(el)+S(vib)+S(rot)+S(trans))
     S(el)   - electronic entropy
     S(vib)  - vibrational entropy
     S(rot)  - rotational entropy
     S(trans)- translational entropy
The entropies will be listed as multiplied by the temperature to get
units of energy

Electronic entropy                ...      0.00000000 Eh      0.00 kcal/mol
Vibrational entropy               ...      0.00336629 Eh      2.11 kcal/mol
Rotational entropy                ...      0.01143367 Eh      7.17 kcal/mol
Translational entropy             ...      0.01810171 Eh     11.36 kcal/mol
-----------------------------------------------------------------------
Final entropy term                ...      0.03290168 Eh     20.65 kcal/mol

In case the symmetry of your molecule has not been determined correctly
or in case you have a reason to use a different symmetry number we print
out the resulting rotational entropy values for sn=1,12 :
 --------------------------------------------------------
|  sn= 1 | S(rot)=       0.01143367 Eh      7.17 kcal/mol|
|  sn= 2 | S(rot)=       0.01077921 Eh      6.76 kcal/mol|
|  sn= 3 | S(rot)=       0.01039638 Eh      6.52 kcal/mol|
|  sn= 4 | S(rot)=       0.01012476 Eh      6.35 kcal/mol|
|  sn= 5 | S(rot)=       0.00991407 Eh      6.22 kcal/mol|
|  sn= 6 | S(rot)=       0.00974192 Eh      6.11 kcal/mol|
|  sn= 7 | S(rot)=       0.00959638 Eh      6.02 kcal/mol|
|  sn= 8 | S(rot)=       0.00947030 Eh      5.94 kcal/mol|
|  sn= 9 | S(rot)=       0.00935909 Eh      5.87 kcal/mol|
|  sn=10 | S(rot)=       0.00925961 Eh      5.81 kcal/mol|
|  sn=11 | S(rot)=       0.00916962 Eh      5.75 kcal/mol|
|  sn=12 | S(rot)=       0.00908747 Eh      5.70 kcal/mol|
 --------------------------------------------------------

-------------------
GIBBS FREE ENERGY
-------------------

The Gibbs free energy is G = H - T*S

Total enthalpy                    ...   -192.98877527 Eh
Total entropy correction          ...     -0.03290168 Eh    -20.65 kcal/mol
-----------------------------------------------------------------------
Final Gibbs free energy         ...   -193.02167695 Eh

For completeness - the Gibbs free energy minus the electronic energy
G-E(el)                           ...      0.04831648 Eh     30.32 kcal/mol

                             ****ORCA TERMINATED NORMALLY****
TOTAL RUN TIME: 0 days 0 hours 4 minutes 32 seconds 9 msec
